ITEM: TIMESTEP
1
ITEM: NUMBER OF ENTRIES
292
ITEM: BOX BOUNDS ff ff ff
0.0 482.0
0.0 482.0
0.0 482.0
ITEM: ENTRIES index c_1[1] c_1[2] c_1[3] c_2[1] c_2[2] 
0 1 philosophy philosophy_of_logic 1.0 1.0 
1 1 philosophy awareness 1.0 1.0 
2 1 jazz List 1.0 1.0 
3 1 jazz music_genre 1.0 1.0 
4 1 music_genre music 1.0 1.0 
5 1 music_genre electronic_music 1.0 1.0 
6 1 music the_arts 1.0 1.0 
7 1 music genre_(music) 1.0 1.0 
8 1 the_arts creativity 1.0 1.0 
9 1 creativity idea 1.0 1.0 
10 1 idea usage_(language) 1.0 1.0 
11 1 usage_(language) language 1.0 1.0 
12 1 usage_(language) shooting_sport 1.0 1.0 
13 1 language communication 1.0 1.0 
14 1 language language_family 1.0 1.0 
15 1 language classical_language 1.0 1.0 
16 1 language modern_language 1.0 1.0 
17 1 communication information 1.0 1.0 
18 1 communication code 1.0 1.0 
19 1 information abstraction 1.0 1.0 
20 1 information book 1.0 1.0 
21 1 abstraction rule_of_inference 1.0 1.0 
22 1 rule_of_inference philosophy_of_logic 1.0 1.0 
23 1 philosophy_of_logic enzyme 1.0 1.0 
24 1 philosophy_of_logic korean_language 1.0 1.0 
25 1 philosophy_of_logic icon 1.0 1.0 
26 1 philosophy_of_logic wind_gap_(geographical_feature) 1.0 1.0 
27 1 enzyme protein 1.0 1.0 
28 1 protein biomolecule 1.0 1.0 
29 1 biomolecule molecule 1.0 1.0 
30 1 molecule atom 1.0 1.0 
31 1 atom atomic_nucleus 1.0 1.0 
32 1 atomic_nucleus proton 1.0 1.0 
33 1 proton subatomic_particle 1.0 1.0 
34 1 subatomic_particle physics 1.0 1.0 
35 1 physics natural_science 1.0 1.0 
36 1 natural_science branches_of_science 1.0 1.0 
37 1 natural_science engineering 1.0 1.0 
38 1 branches_of_science science 1.0 1.0 
39 1 branches_of_science social_science 1.0 1.0 
40 1 branches_of_science association_football 1.0 1.0 
41 1 branches_of_science danish_language 1.0 1.0 
42 1 science knowledge 1.0 1.0 
43 1 science biology 1.0 1.0 
44 1 science chemistry 1.0 1.0 
45 1 knowledge awareness 1.0 1.0 
46 1 knowledge persian_language 1.0 1.0 
47 1 awareness ea_wer 1.0 1.0 
48 1 awareness consciousness 1.0 1.0 
49 1 awareness puerto_rican_people 1.0 1.0 
50 1 awareness rower 1.0 1.0 
51 1 awareness fatimid_caliphate 1.0 1.0 
52 1 ea_wer rural_commune_(vietnam) 1.0 1.0 
53 1 rural_commune_(vietnam) vietnamese_language 1.0 1.0 
54 1 vietnamese_language austroasiatic_languages 1.0 1.0 
55 1 austroasiatic_languages language_family 1.0 1.0 
56 1 language_family junior_ice_hockey 1.0 1.0 
57 1 language_family indo-european_languages 1.0 1.0 
58 1 language_family uralic_language_family 1.0 1.0 
59 1 language_family afroasiatic_languages 1.0 1.0 
60 1 language_family eastern_polynesian_languages 1.0 1.0 
61 1 junior_ice_hockey ice_hockey 1.0 1.0 
62 1 ice_hockey team_sport 1.0 1.0 
63 1 team_sport sport 1.0 1.0 
64 1 team_sport association_football 1.0 1.0 
65 1 team_sport manassas,_virginia 1.0 1.0 
66 1 sport physical_activity 1.0 1.0 
67 1 sport contact_sport 1.0 1.0 
68 1 sport playing_field 1.0 1.0 
69 1 sport motorcycle_sport 1.0 1.0 
70 1 physical_activity exercise 1.0 1.0 
71 1 exercise human_body 1.0 1.0 
72 1 human_body human 1.0 1.0 
73 1 human species 1.0 1.0 
74 1 species biology 1.0 1.0 
75 1 species canadians 1.0 1.0 
76 1 biology australian_rules_football 1.0 1.0 
77 1 biology evolution 1.0 1.0 
78 1 biology taxonomic_rank 1.0 1.0 
79 1 biology species_(biology) 1.0 1.0 
80 1 australian_rules_football contact_sport 1.0 1.0 
81 1 contact_sport chemical_engineering 1.0 1.0 
82 1 chemical_engineering engineering 1.0 1.0 
83 1 engineering illustrator 1.0 1.0 
84 1 illustrator artist 1.0 1.0 
85 1 artist art 1.0 1.0 
86 1 art human_behavior 1.0 1.0 
87 1 human_behavior energy_(psychological) 1.0 1.0 
88 1 human_behavior art#forms,_genres,_media,_and_styles 1.0 1.0 
89 1 energy_(psychological) psychology 1.0 1.0 
90 1 psychology mind 1.0 1.0 
91 1 mind thought 1.0 1.0 
92 1 thought consciousness 1.0 1.0 
93 1 consciousness atlanta,_georgia 1.0 1.0 
94 1 consciousness experience 1.0 1.0 
95 1 atlanta,_georgia list_of_capitals_in_the_united_states 1.0 1.0 
96 1 list_of_capitals_in_the_united_states capital_city 1.0 1.0 
97 1 capital_city municipality 1.0 1.0 
98 1 municipality administrative_division 1.0 1.0 
99 1 administrative_division sovereign_state 1.0 1.0 
100 1 administrative_division district 1.0 1.0 
101 1 sovereign_state state_(polity) 1.0 1.0 
102 1 sovereign_state kingdom_of_england 1.0 1.0 
103 1 sovereign_state treasurer_of_the_united_states 1.0 1.0 
104 1 state_(polity) politics 1.0 1.0 
105 1 state_(polity) government 1.0 1.0 
106 1 state_(polity) citizenship 1.0 1.0 
107 1 politics ancient_greek_language 1.0 1.0 
108 1 politics baseball 1.0 1.0 
109 1 ancient_greek_language greek_language 1.0 1.0 
110 1 ancient_greek_language meaning_(linguistic) 1.0 1.0 
111 1 ancient_greek_language icon 1.0 1.0 
112 1 ancient_greek_language geometry 1.0 1.0 
113 1 ancient_greek_language geology 1.0 1.0 
114 1 greek_language modern_greek 1.0 1.0 
115 1 greek_language ancient_greek 1.0 1.0 
116 1 modern_greek dialect 1.0 1.0 
117 1 dialect latin 1.0 1.0 
118 1 latin classical_language 1.0 1.0 
119 1 classical_language davenport,_iowa 1.0 1.0 
120 1 classical_language latin_language 1.0 1.0 
121 1 classical_language triathlon 1.0 1.0 
122 1 classical_language asian-american 1.0 1.0 
123 1 classical_language military_photographer 1.0 1.0 
124 1 davenport,_iowa scott_county,_iowa 1.0 1.0 
125 1 scott_county,_iowa county_(united_states) 1.0 1.0 
126 1 county_(united_states) united_states 1.0 1.0 
127 1 county_(united_states) nevada_county,_arkansas 1.0 1.0 
128 1 county_(united_states) independent_city_(united_states) 1.0 1.0 
129 1 county_(united_states) species_(biology) 1.0 1.0 
130 1 united_states continental_united_states 1.0 1.0 
131 1 united_states u.s._state 1.0 1.0 
132 1 united_states race_and_ethnicity_in_the_united_states 1.0 1.0 
133 1 continental_united_states u.s._state 1.0 1.0 
134 1 continental_united_states united_states_of_america 1.0 1.0 
135 1 u.s._state colony_of_newfoundland 1.0 1.0 
136 1 u.s._state science_fiction 1.0 1.0 
137 1 u.s._state icao_airport_code 1.0 1.0 
138 1 colony_of_newfoundland english_overseas_possessions 1.0 1.0 
139 1 english_overseas_possessions kingdom_of_england 1.0 1.0 
140 1 kingdom_of_england northern_manitoba 1.0 1.0 
141 1 northern_manitoba list_of_regions_of_manitoba 1.0 1.0 
142 1 list_of_regions_of_manitoba canada 1.0 1.0 
143 1 canada north_america 1.0 1.0 
144 1 north_america continent 1.0 1.0 
145 1 continent geography 1.0 1.0 
146 1 geography ancient_greek 1.0 1.0 
147 1 ancient_greek physician 1.0 1.0 
148 1 physician american_english 1.0 1.0 
149 1 american_english variety_(linguistics) 1.0 1.0 
150 1 american_english rower 1.0 1.0 
151 1 variety_(linguistics) sociolinguistics 1.0 1.0 
152 1 sociolinguistics society 1.0 1.0 
153 1 society social_group 1.0 1.0 
154 1 social_group social_science 1.0 1.0 
155 1 social_group rivalry 1.0 1.0 
156 1 social_science sweden 1.0 1.0 
157 1 sweden nordic_countries 1.0 1.0 
158 1 nordic_countries literal_translation 1.0 1.0 
159 1 literal_translation translation 1.0 1.0 
160 1 translation meaning_(linguistic) 1.0 1.0 
161 1 meaning_(linguistic) dagestan 1.0 1.0 
162 1 dagestan russian_language 1.0 1.0 
163 1 russian_language east_slavic_languages 1.0 1.0 
164 1 east_slavic_languages slavic_languages 1.0 1.0 
165 1 slavic_languages indo-european_languages 1.0 1.0 
166 1 indo-european_languages baltic_sea 1.0 1.0 
167 1 indo-european_languages germanic_languages 1.0 1.0 
168 1 indo-european_languages thunder_bay 1.0 1.0 
169 1 baltic_sea atlantic_ocean 1.0 1.0 
170 1 atlantic_ocean ocean 1.0 1.0 
171 1 ocean saline_water 1.0 1.0 
172 1 saline_water water 1.0 1.0 
173 1 water inorganic_compound 1.0 1.0 
174 1 inorganic_compound chemistry 1.0 1.0 
175 1 chemistry university_of_maryland,_college_park 1.0 1.0 
176 1 university_of_maryland,_college_park public_university 1.0 1.0 
177 1 public_university university 1.0 1.0 
178 1 university latin_language 1.0 1.0 
179 1 latin_language fail: 1.0 1.0 
180 1 fail: index 1.0 1.0 
181 1 comedy_film The 1.0 1.0 
182 1 comedy_film film 1.0 1.0 
183 1 film visual_art 1.0 1.0 
184 1 visual_art art#forms,_genres,_media,_and_styles 1.0 1.0 
185 1 puerto_rican_people spanish_language 1.0 1.0 
186 1 spanish_language picaresque_novel 1.0 1.0 
187 1 dutch_language Volkel 1.0 1.0 
188 1 dutch_language west_germanic_languages 1.0 1.0 
189 1 west_germanic_languages germanic_languages 1.0 1.0 
190 1 west_germanic_languages afrikaans_language 1.0 1.0 
191 1 germanic_languages north_germanic_languages 1.0 1.0 
192 1 korean_language south_korean_standard_language 1.0 1.0 
193 1 south_korean_standard_language sprint_(running) 1.0 1.0 
194 1 sprint_(running) running 1.0 1.0 
195 1 running terrestrial_locomotion 1.0 1.0 
196 1 terrestrial_locomotion evolution 1.0 1.0 
197 1 association_football uralic_language_family 1.0 1.0 
198 1 association_football beach_soccer 1.0 1.0 
199 1 canadians french_language 1.0 1.0 
200 1 french_language romance_languages 1.0 1.0 
201 1 french_language genre 1.0 1.0 
202 1 romance_languages modern_language 1.0 1.0 
203 1 romance_languages italian_language 1.0 1.0 
204 1 modern_language finland 1.0 1.0 
205 1 modern_language icao_airport_code 1.0 1.0 
206 1 modern_language installation_art 1.0 1.0 
207 1 finland finnish_language 1.0 1.0 
208 1 finnish_language endonym 1.0 1.0 
209 1 endonym name 1.0 1.0 
210 1 name referent 1.0 1.0 
211 1 name endonym_and_exonym 1.0 1.0 
212 1 referent emmet,_arkansas 1.0 1.0 
213 1 referent south_west_africa 1.0 1.0 
214 1 emmet,_arkansas nevada_county,_arkansas 1.0 1.0 
215 1 science_fiction genre 1.0 1.0 
216 1 genre saaremaa_parish 1.0 1.0 
217 1 saaremaa_parish estonian_language 1.0 1.0 
218 1 estonian_language finnic_language 1.0 1.0 
219 1 finnic_language uralic_language_family 1.0 1.0 
220 1 uralic_language_family persian_language 1.0 1.0 
221 1 persian_language endonym_and_exonym 1.0 1.0 
222 1 endonym_and_exonym genus 1.0 1.0 
223 1 genus taxonomic_rank 1.0 1.0 
224 1 taxonomic_rank united_states_of_america 1.0 1.0 
225 1 united_states_of_america civil_law_notary 1.0 1.0 
226 1 civil_law_notary lawyer 1.0 1.0 
227 1 lawyer practice_of_law 1.0 1.0 
228 1 practice_of_law legal_advice 1.0 1.0 
229 1 legal_advice law 1.0 1.0 
230 1 law law_enforcement 1.0 1.0 
231 1 law_enforcement government 1.0 1.0 
232 1 triathlon endurance 1.0 1.0 
233 1 endurance https://en.wiktionary.org/wiki/sufferance 1.0 1.0 
234 1 medium_tank M3 1.0 1.0 
235 1 medium_tank tank_classification 1.0 1.0 
236 1 tank_classification taxonomy_(general) 1.0 1.0 
237 1 taxonomy_(general) categorization 1.0 1.0 
238 1 categorization experience 1.0 1.0 
239 1 fatimid_caliphate isma%27ilism 1.0 1.0 
240 1 isma%27ilism arabic_language 1.0 1.0 
241 1 arabic_language semitic_languages 1.0 1.0 
242 1 arabic_language egypt 1.0 1.0 
243 1 semitic_languages afroasiatic_languages 1.0 1.0 
244 1 asian-american americans 1.0 1.0 
245 1 americans citizenship_of_the_united_states 1.0 1.0 
246 1 citizenship_of_the_united_states citizenship 1.0 1.0 
247 1 baseball bat-and-ball_games 1.0 1.0 
248 1 bat-and-ball_games playing_field 1.0 1.0 
249 1 south_west_africa afrikaans_language 1.0 1.0 
250 1 thunder_bay thunder_bay_district 1.0 1.0 
251 1 thunder_bay_district district 1.0 1.0 
252 1 treasurer_of_the_united_states united_states_department_of_the_treasury 1.0 1.0 
253 1 united_states_department_of_the_treasury treasury 1.0 1.0 
254 1 treasury treasurer 1.0 1.0 
255 1 treasurer electronic_music 1.0 1.0 
256 1 shooting_sport competitive_sport 1.0 1.0 
257 1 competitive_sport rivalry 1.0 1.0 
258 1 danish_language north_germanic_languages 1.0 1.0 
259 1 north_germanic_languages african_american 1.0 1.0 
260 1 african_american race_and_ethnicity_in_the_united_states 1.0 1.0 
261 1 icao_airport_code code 1.0 1.0 
262 1 code municipality_of_poschiavo 1.0 1.0 
263 1 municipality_of_poschiavo italian_language 1.0 1.0 
264 1 installation_art three-dimensional 1.0 1.0 
265 1 three-dimensional geometry 1.0 1.0 
266 1 geometry motorcycle_racing 1.0 1.0 
267 1 motorcycle_racing motorcycle_sport 1.0 1.0 
268 1 motorcycle_sport mayor_of_wellington 1.0 1.0 
269 1 mayor_of_wellington wellington 1.0 1.0 
270 1 wellington m%c4%81ori_language 1.0 1.0 
271 1 m%c4%81ori_language eastern_polynesian_languages 1.0 1.0 
272 1 eastern_polynesian_languages roald_dahl 1.0 1.0 
273 1 roald_dahl children%27s_literature 1.0 1.0 
274 1 children%27s_literature picture_books 1.0 1.0 
275 1 picture_books book 1.0 1.0 
276 1 book beach_soccer 1.0 1.0 
277 1 manassas,_virginia independent_city_(united_states) 1.0 1.0 
278 1 species_(biology) egypt 1.0 1.0 
279 1 egypt novel_in_scotland 1.0 1.0 
280 1 novel_in_scotland tobias_smollett 1.0 1.0 
281 1 tobias_smollett picaresque_novel 1.0 1.0 
282 1 sheppard_(band) Kiss 1.0 1.0 
283 1 sheppard_(band) indie_pop 1.0 1.0 
284 1 indie_pop guitar_pop 1.0 1.0 
285 1 guitar_pop rock_music 1.0 1.0 
286 1 rock_music genre_(music) 1.0 1.0 
287 1 wind_gap_(geographical_feature) gap_(landform) 1.0 1.0 
288 1 gap_(landform) geological_formation 1.0 1.0 
289 1 geological_formation lithology 1.0 1.0 
290 1 lithology rock_(geology) 1.0 1.0 
291 1 rock_(geology) geology 1.0 1.0 

