ITEM: TIMESTEP
1
ITEM: NUMBER OF ATOMS
241
ITEM: BOX BOUNDS ff ff ff
0.0 482.0
0.0 482.0
0.0 482.0
ITEM: ATOMS id x y z type
0 178.6639 403.7145 2.1621 2.0 
1 212.8892 277.9731 253.3269 2.0 
2 145.1462 314.5198 83.9193 1.0 
3 442.751 51.9797 117.4396 3.0 
4 325.7299 271.4065 223.2022 3.0 
5 385.5679 6.4272 142.2162 2.0 
6 242.4317 248.9733 228.9253 2.0 
7 37.2043 29.5205 22.2315 2.0 
8 143.474 446.7657 240.9218 3.0 
9 31.6922 61.6257 36.1114 5.0 
10 419.4745 375.1741 244.8713 3.0 
11 237.2203 110.0863 81.155 3.0 
12 285.3274 0.0 129.6111 2.0 
13 456.2944 16.6563 239.4829 2.0 
14 343.8253 194.1774 46.7049 6.0 
15 193.6496 263.9499 43.4434 2.0 
16 456.4566 247.8046 183.6843 2.0 
17 414.8485 200.3001 82.6795 2.0 
18 111.5936 308.0898 240.0194 2.0 
19 98.281 127.9328 29.9662 2.0 
20 200.1633 66.4128 5.7805 2.0 
21 204.3653 111.934 188.3414 2.0 
22 219.7321 440.0215 383.519 2.0 
23 143.702 119.4358 98.0076 2.0 
24 205.749 248.3625 46.601 3.0 
25 118.3983 230.0459 72.7382 5.0 
26 318.2055 189.0054 216.4036 4.0 
27 87.3554 411.2983 370.0142 3.0 
28 299.8675 239.7465 45.924 7.0 
29 465.9339 393.248 356.9984 2.0 
30 50.2604 76.6668 50.5725 2.0 
31 48.8333 207.5812 189.0059 2.0 
32 266.2218 246.2902 149.1183 2.0 
33 209.6229 180.8774 135.8619 7.0 
34 30.1392 369.5713 248.576 2.0 
35 409.8908 48.6439 262.5448 2.0 
36 210.7598 356.4216 228.4687 4.0 
37 411.4685 209.3076 217.2588 5.0 
38 94.2 205.2829 45.4387 2.0 
39 364.8535 467.367 142.8147 2.0 
40 239.7488 167.992 151.746 2.0 
41 76.6514 452.0613 6.3509 2.0 
42 299.2408 268.736 293.2439 3.0 
43 430.4467 265.3967 57.6039 6.0 
44 312.5496 333.9447 15.7292 2.0 
45 296.1796 158.6325 73.3082 3.0 
46 374.9265 93.7543 316.225 2.0 
47 461.8262 109.2754 374.4729 3.0 
48 375.8882 407.3757 209.8336 2.0 
49 206.1899 372.5054 307.0368 2.0 
50 269.9032 272.2654 131.2365 2.0 
51 458.6677 33.1542 250.2827 3.0 
52 142.7379 343.0604 118.7183 2.0 
53 309.1124 324.3943 5.3868 2.0 
54 14.3099 203.0443 46.8849 2.0 
55 450.735 416.8351 259.8463 2.0 
56 85.8854 68.6332 55.9036 4.0 
57 263.0734 270.6217 53.9784 2.0 
58 250.1027 149.3671 181.733 2.0 
59 130.1119 343.8123 40.3878 2.0 
60 303.2858 352.2406 169.9525 2.0 
61 415.0801 481.0963 471.8291 3.0 
62 473.831 442.4275 214.4096 4.0 
63 110.0043 197.7415 173.0351 4.0 
64 187.6202 208.3533 122.2105 3.0 
65 98.1252 128.2799 96.5848 6.0 
66 203.4217 280.7778 205.2849 3.0 
67 343.7226 252.1387 135.1796 2.0 
68 457.9666 308.927 209.636 2.0 
69 400.4965 241.1484 211.749 2.0 
70 253.7115 415.5242 172.0045 7.0 
71 456.8695 392.4596 224.893 2.0 
72 141.0679 308.2567 239.5538 2.0 
73 144.8328 243.0104 232.8595 5.0 
74 240.5066 456.9641 214.6181 4.0 
75 433.7046 450.5655 73.9146 3.0 
76 23.1357 22.2854 11.4097 5.0 
77 423.1513 430.881 118.6766 2.0 
78 200.423 174.565 73.3694 2.0 
79 144.0813 78.0189 120.4542 3.0 
80 124.2458 323.3957 237.9371 2.0 
81 447.6064 14.1498 71.0115 2.0 
82 252.4383 254.2936 21.4692 2.0 
83 166.2587 144.428 29.6189 2.0 
84 304.4269 37.4125 255.2082 2.0 
85 324.6903 298.4458 177.1623 2.0 
86 422.442 236.0876 18.2009 3.0 
87 76.3647 43.9676 0.0 2.0 
88 117.8626 76.0565 62.0647 3.0 
89 477.9223 322.8917 216.3184 2.0 
90 378.121 365.9607 37.832 2.0 
91 28.2212 39.0543 8.9188 2.0 
92 233.079 307.0286 93.0697 3.0 
93 0.0 142.639 76.0132 3.0 
94 452.3354 382.0098 31.4146 2.0 
95 131.3572 268.0203 152.672 2.0 
96 272.0383 266.5894 29.083 2.0 
97 263.5839 69.9018 236.7439 2.0 
98 261.6801 352.1712 188.278 3.0 
99 427.1041 146.0392 33.7103 2.0 
100 389.7085 14.2778 298.4297 2.0 
101 384.7666 19.5967 289.8665 2.0 
102 181.8766 191.3153 26.4574 2.0 
103 472.2456 12.6863 469.3268 5.0 
104 222.7181 422.1198 87.3942 2.0 
105 404.1823 31.2833 243.03 2.0 
106 58.7617 42.0396 1.1736 2.0 
107 367.4329 362.6775 268.1708 2.0 
108 79.2657 158.9586 85.2339 2.0 
109 367.8242 374.1826 212.6441 2.0 
110 268.6211 470.1479 290.6981 3.0 
111 331.9973 55.3239 230.1709 2.0 
112 319.335 347.3554 17.2395 2.0 
113 27.2075 50.6247 2.5438 2.0 
114 321.3114 336.8118 135.4996 3.0 
115 100.4926 116.9997 77.0302 2.0 
116 366.6914 142.0635 250.8438 2.0 
117 168.1336 130.4501 107.1755 1.0 
118 62.2104 278.8544 165.5939 2.0 
119 206.4982 457.4369 346.124 2.0 
120 102.3153 345.5285 193.9665 2.0 
121 156.2483 196.2894 118.6123 2.0 
122 154.745 231.5125 86.8504 2.0 
123 306.6651 136.536 174.7724 2.0 
124 12.9662 3.7831 9.8406 1.0 
125 325.8689 161.9491 176.0842 3.0 
126 401.4579 458.7805 75.2549 3.0 
127 16.6963 482.0 328.9404 2.0 
128 99.2001 436.293 415.271 2.0 
129 458.6071 427.6461 92.52 2.0 
130 123.4508 270.8014 48.227 2.0 
131 205.7173 146.4168 62.7152 2.0 
132 257.7092 124.2462 197.1844 2.0 
133 217.1399 17.9688 119.6096 2.0 
134 417.8423 319.8466 28.3068 4.0 
135 432.9851 154.1743 54.4626 2.0 
136 74.672 433.5991 257.9645 3.0 
137 13.4266 150.6552 75.0694 3.0 
138 414.8005 86.2473 110.4071 5.0 
139 424.2467 309.8345 369.163 2.0 
140 474.2248 353.5768 146.0065 2.0 
141 443.4131 72.348 158.0529 2.0 
142 468.6295 400.4263 201.5955 3.0 
143 203.0069 51.94 10.8772 3.0 
144 125.9654 198.8824 118.5082 2.0 
145 290.0094 329.7583 293.1871 2.0 
146 168.1662 201.0869 36.7423 2.0 
147 215.6554 251.0405 185.8809 3.0 
148 396.8707 181.1489 348.8023 2.0 
149 340.3958 185.9377 76.5532 2.0 
150 388.8975 313.5947 35.9162 2.0 
151 241.3592 261.9696 206.2104 4.0 
152 151.2402 102.1031 96.5885 3.0 
153 449.6964 422.1831 418.3982 3.0 
154 6.7139 137.1641 83.3177 2.0 
155 94.0049 441.9573 206.2859 3.0 
156 279.8405 241.8161 42.1639 3.0 
157 207.8462 50.6549 75.8394 2.0 
158 400.2957 257.7017 212.3099 2.0 
159 59.6762 410.1688 187.0059 2.0 
160 414.3733 170.5747 42.5593 2.0 
161 320.4163 311.0852 12.6763 2.0 
162 147.0991 280.7387 95.4784 2.0 
163 295.2504 242.6799 263.6843 2.0 
164 481.9466 339.3329 406.1125 2.0 
165 416.1717 217.0153 416.6885 2.0 
166 403.9796 21.1504 303.0851 1.0 
167 470.5977 52.073 434.5731 2.0 
168 61.5537 27.5499 33.7721 1.0 
169 354.7627 385.9645 110.3945 2.0 
170 100.1872 423.4866 298.7065 2.0 
171 186.195 298.8628 200.4108 2.0 
172 316.9157 465.3068 288.6143 2.0 
173 338.0371 336.6546 297.2981 2.0 
174 157.7973 481.1002 61.2802 2.0 
175 95.4753 80.0262 54.4004 3.0 
176 324.7647 190.9204 276.2112 2.0 
177 391.401 405.973 308.658 2.0 
178 113.6331 28.3109 29.732 2.0 
179 160.6934 257.484 97.8754 2.0 
180 34.4197 99.1621 50.4876 2.0 
181 109.6017 41.6124 61.71 2.0 
182 249.4156 279.7113 250.2155 2.0 
183 119.5133 359.6707 109.9979 2.0 
184 197.9362 363.5283 294.9857 2.0 
185 329.7794 285.6863 327.3628 2.0 
186 331.8408 275.8825 252.8234 2.0 
187 22.3983 129.0014 70.0864 2.0 
188 305.2791 10.8751 192.3592 2.0 
189 233.5416 36.3637 180.1043 2.0 
190 322.0486 134.3165 139.3315 2.0 
191 364.1333 186.4095 360.072 2.0 
192 39.6803 185.1794 148.5145 2.0 
193 279.9674 222.1306 257.0869 2.0 
194 1.6655 212.6187 47.5351 2.0 
195 142.9016 275.4714 65.6327 2.0 
196 345.0372 20.6642 48.3231 2.0 
197 308.0812 460.568 9.9022 2.0 
198 291.6427 476.1754 361.1303 2.0 
199 319.7396 206.2497 129.8297 2.0 
200 302.6763 463.9335 93.7166 3.0 
201 451.3431 17.1054 242.0536 2.0 
202 78.8173 103.1315 46.8312 2.0 
203 299.1684 378.8363 20.7675 3.0 
204 36.1971 430.0991 361.9268 3.0 
205 306.874 251.7321 111.0546 2.0 
206 0.7881 182.6056 171.7883 2.0 
207 378.2706 147.1553 116.2438 2.0 
208 397.5552 278.4957 134.4835 2.0 
209 455.2701 193.9887 17.5886 3.0 
210 415.2197 119.7263 236.1445 2.0 
211 276.8306 416.4809 218.7116 3.0 
212 462.1041 216.4868 26.3211 2.0 
213 54.6091 472.652 126.7059 2.0 
214 435.109 132.3177 347.2687 2.0 
215 231.2518 346.363 313.6405 3.0 
216 39.9457 265.5399 81.4993 2.0 
217 381.0284 157.0351 223.2764 2.0 
218 103.8406 122.504 45.4541 2.0 
219 58.6811 64.1683 60.5052 3.0 
220 5.9409 436.2528 435.7655 2.0 
221 93.3528 171.0077 37.1686 2.0 
222 470.8098 328.1558 412.7216 2.0 
223 471.2457 35.696 154.7108 3.0 
224 120.8617 115.634 27.6595 3.0 
225 32.9412 476.6341 337.2802 2.0 
226 256.3175 405.6346 230.4343 2.0 
227 289.7011 94.1269 35.707 2.0 
228 218.0333 140.1613 169.0433 2.0 
229 328.2772 171.2216 294.3659 1.0 
230 48.7314 118.0943 72.4615 2.0 
231 372.8149 65.4154 25.512 2.0 
232 278.8957 199.8881 191.5429 2.0 
233 168.9202 401.2701 317.8877 2.0 
234 157.4098 179.7316 78.8553 2.0 
235 162.1625 371.1683 223.1256 2.0 
236 424.7104 157.182 46.2484 2.0 
237 408.6767 335.1143 142.6205 2.0 
238 256.9049 107.7916 233.0991 2.0 
239 299.8316 222.8305 250.6502 2.0 
240 125.5525 91.8718 85.7135 2.0 

